 Gaussian 09, Revision E.01,
 Gaussian 09:  ES64L-G09RevE.01 30-Nov-2015

 ----------------------------------------------------------------------
 #P PBEPBE/def2SVP/W06 DenFit opt(MaxCycle=100 MaxStep=10 VeryTight NoE
 igenTest) scf(xqc MaxConventionalCycle = 500) int(ultrafinegrid) gfinp
 ut gfoldprint iop(6/7=3) symmetry(loose)
 ----------------------------------------------------------------------

 -----------------------
 Borane DF-BP86/def2-SVP
 -----------------------
 Symbolic Z-matrix:
 Charge =  0 Multiplicity = 1

 SCF Done:  E(RPBE-PBE) =  -26.4025632747     A.U. after    9 cycles
 SCF Done:  E(RPBE-PBE) =  -26.4267601596     A.U. after    8 cycles
 SCF Done:  E(RPBE-PBE) =  -26.4641035803     A.U. after    8 cycles
 SCF Done:  E(RPBE-PBE) =  -26.5023472905     A.U. after   10 cycles
 SCF Done:  E(RPBE-PBE) =  -26.5111124821     A.U. after    9 cycles
 SCF Done:  E(RPBE-PBE) =  -26.5195073718     A.U. after    8 cycles
 SCF Done:  E(RPBE-PBE) =  -26.5200807347     A.U. after    8 cycles
 SCF Done:  E(RPBE-PBE) =  -26.5200823620     A.U. after    6 cycles
 SCF Done:  E(RPBE-PBE) =  -26.5200823623     A.U. after    4 cycles
 Optimization completed.
    -- Stationary point found.

                         Standard orientation:
 ---------------------------------------------------------------------
 Center     Atomic      Atomic             Coordinates (Angstroms)
 Number     Number       Type             X           Y           Z
 ---------------------------------------------------------------------
      1          5           0        0.000000    0.000000   -0.000000
      2          1           0        0.000000    1.214386    0.000000
      3          1           0       -1.051689   -0.607193    0.000000
      4          1           0        1.051689   -0.607193    0.000000
 ---------------------------------------------------------------------

 Unable to determine electronic state:  an orbital has unidentified symmetry.
 Alpha  occ. eigenvalues --   -6.54546  -0.45393  -0.30670  -0.30670
 Alpha virt. eigenvalues --   -0.11032   0.11933   0.11933   0.12425   0.17668
 Alpha virt. eigenvalues --    0.23193   0.23193   0.29002   0.60972   0.60972
 Alpha virt. eigenvalues --    0.61793   0.86972   0.86972   1.22889   1.22889

 Mulliken charges:
               1
     1  B   -0.032048
     2  H    0.010683
     3  H    0.010683
     4  H    0.010683
 Sum of Mulliken charges =  -0.00000

 Dipole moment (field-independent basis, Debye):
    X=              0.0000    Y=             -0.0000    Z=             -0.0000  Tot=              0.0000
 Quadrupole moment (field-independent basis, Debye-Ang):
   XX=             -9.1664   YY=             -9.1664   ZZ=             -7.2517
   XY=              0.0000   XZ=              0.0000   YZ=             -0.0000

 Normal termination of Gaussian 09 at Wed Jan 24 15:19:06 2018.
