 Gaussian 09, Revision E.01,
 Gaussian 09:  ES64L-G09RevE.01 30-Nov-2015

 ----------------------------------------------------------------------
 #P BP86/def2SVP/W06 DenFit opt(MaxCycle=100 MaxStep=10 VeryTight NoEig
 enTest) scf(xqc MaxConventionalCycle = 500) int(ultrafinegrid) gfinput
  gfoldprint iop(6/7=3) symmetry(loose)
 ----------------------------------------------------------------------

 -----------------------
 Borane DF-BP86/def2-SVP
 -----------------------
 Symbolic Z-matrix:
 Charge =  0 Multiplicity = 1

 SCF Done:  E(RB-P86) =  -26.4559683657     A.U. after    9 cycles
 SCF Done:  E(RB-P86) =  -26.4801880524     A.U. after    8 cycles
 SCF Done:  E(RB-P86) =  -26.5176129191     A.U. after    8 cycles
 SCF Done:  E(RB-P86) =  -26.5561104092     A.U. after   10 cycles
 SCF Done:  E(RB-P86) =  -26.5650599478     A.U. after    9 cycles
 SCF Done:  E(RB-P86) =  -26.5733138755     A.U. after    8 cycles
 SCF Done:  E(RB-P86) =  -26.5738207087     A.U. after    7 cycles
 SCF Done:  E(RB-P86) =  -26.5738220552     A.U. after    6 cycles
 SCF Done:  E(RB-P86) =  -26.5738220554     A.U. after    4 cycles
 Optimization completed.
    -- Stationary point found.

                         Standard orientation:
 ---------------------------------------------------------------------
 Center     Atomic      Atomic             Coordinates (Angstroms)
 Number     Number       Type             X           Y           Z
 ---------------------------------------------------------------------
      1          5           0        0.000000    0.000000   -0.000000
      2          1           0        0.000000    1.214151    0.000000
      3          1           0       -1.051486   -0.607076    0.000000
      4          1           0        1.051486   -0.607076    0.000000
 ---------------------------------------------------------------------

 Unable to determine electronic state:  an orbital has unidentified symmetry.
 Alpha  occ. eigenvalues --   -6.55993  -0.45771  -0.31053  -0.31053
 Alpha virt. eigenvalues --   -0.11073   0.11940   0.11940   0.12269   0.18305
 Alpha virt. eigenvalues --    0.23319   0.23319   0.29826   0.61091   0.61091
 Alpha virt. eigenvalues --    0.61946   0.86772   0.86772   1.22754   1.22754

 Mulliken charges:
               1
     1  B   -0.001125
     2  H    0.000375
     3  H    0.000375
     4  H    0.000375
 Sum of Mulliken charges =   0.00000

 Dipole moment (field-independent basis, Debye):
    X=              0.0000    Y=              0.0000    Z=             -0.0000  Tot=              0.0000
 Quadrupole moment (field-independent basis, Debye-Ang):
   XX=             -9.1813   YY=             -9.1813   ZZ=             -7.2220
   XY=             -0.0000   XZ=              0.0000   YZ=             -0.0000

 Normal termination of Gaussian 09 at Mon Jan 22 21:18:04 2018.
