 Gaussian 09, Revision E.01,
 Gaussian 09:  ES64L-G09RevE.01 30-Nov-2015

 ----------------------------------------------------------------------
 #P B97d3/def2SVP/W06 DenFit opt(MaxCycle=100 MaxStep=10 VeryTight NoEi
 genTest) scf(xqc MaxConventionalCycle = 500) int(ultrafinegrid) gfinpu
 t gfoldprint iop(6/7=3) symmetry(loose)
 ----------------------------------------------------------------------

 -----------------------
 Borane DF-BP86/def2-SVP
 -----------------------
 Symbolic Z-matrix:
 Charge =  0 Multiplicity = 1

 SCF Done:  E(RB97D3) =  -26.4543860099     A.U. after    9 cycles
 SCF Done:  E(RB97D3) =  -26.4785660689     A.U. after    9 cycles
 SCF Done:  E(RB97D3) =  -26.5159961067     A.U. after    9 cycles
 SCF Done:  E(RB97D3) =  -26.5547084530     A.U. after   10 cycles
 SCF Done:  E(RB97D3) =  -26.5637612646     A.U. after   10 cycles
 SCF Done:  E(RB97D3) =  -26.5718776218     A.U. after    9 cycles
 SCF Done:  E(RB97D3) =  -26.5723061073     A.U. after    8 cycles
 SCF Done:  E(RB97D3) =  -26.5723073354     A.U. after    6 cycles
 SCF Done:  E(RB97D3) =  -26.5723073357     A.U. after    4 cycles
 Optimization completed.
    -- Stationary point found.

                         Standard orientation:
 ---------------------------------------------------------------------
 Center     Atomic      Atomic             Coordinates (Angstroms)
 Number     Number       Type             X           Y           Z
 ---------------------------------------------------------------------
      1          5           0        0.000000    0.000000   -0.000000
      2          1           0        0.000000    1.212445    0.000000
      3          1           0       -1.050008   -0.606222    0.000000
      4          1           0        1.050008   -0.606222    0.000000
 ---------------------------------------------------------------------

 Unable to determine electronic state:  an orbital has unidentified symmetry.
 Alpha  occ. eigenvalues --   -6.57058  -0.45394  -0.30798  -0.30798
 Alpha virt. eigenvalues --   -0.10026   0.12423   0.12423   0.12914   0.18249
 Alpha virt. eigenvalues --    0.23813   0.23813   0.30726   0.61357   0.61357
 Alpha virt. eigenvalues --    0.62077   0.87223   0.87223   1.22932   1.22932

 Mulliken charges:
               1
     1  B    0.032774
     2  H   -0.010925
     3  H   -0.010925
     4  H   -0.010925
 Sum of Mulliken charges =  -0.00000

 Dipole moment (field-independent basis, Debye):
    X=             -0.0000    Y=              0.0000    Z=             -0.0000  Tot=              0.0000
 Quadrupole moment (field-independent basis, Debye-Ang):
   XX=             -9.2033   YY=             -9.2033   ZZ=             -7.1580
   XY=              0.0000   XZ=              0.0000   YZ=             -0.0000

 Normal termination of Gaussian 09 at Wed Jan 24 15:01:17 2018.
