 Gaussian 09, Revision E.01,
 Gaussian 09:  ES64L-G09RevE.01 30-Nov-2015

 ----------------------------------------------------------------------
 #P BP86/def2SVP/W06 DenFit scf(xqc,MaxConventionalCycle=500) int(ultra
 finegrid) gfinput gfoldprint iop(6/7=3) symmetry(loose) geom(check) gu
 ess(read) freq Temperature=393.15 Pressure=1.5
 ----------------------------------------------------------------------

 -----------------------
 Borane DF-BP86/def2-SVP
 -----------------------
 Structure from the checkpoint file:  "borane.df-bp86svp.freq.T393-15P1-5.chk"
 Charge =  0 Multiplicity = 1

                         Standard orientation:
 ---------------------------------------------------------------------
 Center     Atomic      Atomic             Coordinates (Angstroms)
 Number     Number       Type             X           Y           Z
 ---------------------------------------------------------------------
      1          5           0       -0.000000    0.000000    0.000000
      2          1           0       -0.000000    1.214151    0.000000
      3          1           0        1.051486   -0.607076    0.000000
      4          1           0       -1.051486   -0.607076    0.000000
 ---------------------------------------------------------------------

 SCF Done:  E(RB-P86) =  -26.5738220554     A.U. after    1 cycles

 The electronic state is 1-A1'.
 Alpha  occ. eigenvalues --   -6.55993  -0.45771  -0.31053  -0.31053
 Alpha virt. eigenvalues --   -0.11073   0.11940   0.11940   0.12269   0.18305
 Alpha virt. eigenvalues --    0.23319   0.23319   0.29826   0.61091   0.61091
 Alpha virt. eigenvalues --    0.61946   0.86772   0.86772   1.22754   1.22754

 Mulliken charges:
               1
     1  B   -0.001125
     2  H    0.000375
     3  H    0.000375
     4  H    0.000375
 Sum of Mulliken charges =  -0.00000

 Dipole moment (field-independent basis, Debye):
    X=              0.0000    Y=              0.0000    Z=             -0.0000  Tot=              0.0000
 Quadrupole moment (field-independent basis, Debye-Ang):
   XX=             -9.1813   YY=             -9.1813   ZZ=             -7.2220
   XY=             -0.0000   XZ=             -0.0000   YZ=              0.0000

  Exact polarizability:  17.943  -0.000  17.943   0.000  -0.000   9.472
 Approx polarizability:  23.862  -0.000  23.862  -0.000  -0.000  14.645

                      1                      2                      3
                     A2"                    E'                     E'
 Frequencies --   1108.2190              1136.2325              1136.2332
 Red. masses --      1.2531                 1.1068                 1.1068
 Frc consts  --      0.9067                 0.8419                 0.8419
 IR Inten    --     74.8038                10.1687                10.1697

                      4                      5                      6
                     A1'                    E'                     E'
 Frequencies --   2476.4702              2626.5242              2626.5249
 Red. masses --      1.0078                 1.1277                 1.1277
 Frc consts  --      3.6417                 4.5836                 4.5836
 IR Inten    --      0.0000               124.7745               124.7817

 - Thermochemistry -
 -------------------
 Temperature   393.150 Kelvin.  Pressure   1.50000 Atm.
 Atom     1 has atomic number  5 and mass  11.00931

 Molecular mass:    14.03278 amu.
 Principal axes and moments of inertia in atomic units:
                           1         2         3
     Eigenvalues --     7.95829   7.95829  15.91658
           X           -0.47186   0.88167   0.00000
           Y            0.88167   0.47186   0.00000
           Z           -0.00000   0.00000   1.00000
 This molecule is an oblate symmetric top.
 Rotational symmetry number  6.
 Rotational temperatures (Kelvin)     10.88347    10.88347     5.44174
 Rotational constants (GHZ):         226.77506   226.77506   113.38753
 Zero-point vibrational energy      66453.8 (Joules/Mol)
                                   15.88283 (Kcal/Mol)
 Vibrational temperatures:   1594.48  1634.78  1634.78  3563.08  3778.98
          (Kelvin)           3778.98

 Zero-point correction=                           0.025311 (Hartree/Particle)
 Thermal correction to Energy=                    0.029302
 Thermal correction to Enthalpy=                  0.030547
 Thermal correction to Gibbs Free Energy=         0.001177
 Sum of electronic and zero-point Energies=            -26.548511
 Sum of electronic and thermal Energies=               -26.544520
 Sum of electronic and thermal Enthalpies=             -26.543275
 Sum of electronic and thermal Free Energies=          -26.572645

                     E (Thermal)             CV                S
                      KCal/Mol        Cal/Mol-Kelvin    Cal/Mol-Kelvin
 Total                   18.388              7.700             46.878
 Electronic               0.000              0.000              0.000
 Translational            1.172              2.981             34.433
 Rotational               1.172              2.981             11.938
 Vibrational             16.044              1.739              0.507

 Optimization completed.
    -- Stationary point found.
 Normal termination of Gaussian 09 at Tue Jan 23 17:59:07 2018.
