 Gaussian 09, Revision E.01,
 Gaussian 09:  ES64L-G09RevE.01 30-Nov-2015

 ----------------------------------------------------------------------
 #P UBP86/def2SVP/W06 DenFit opt (MaxCycle=100) scf=(xqc, MaxConvention
 alCycle=500) int = (ultrafinegrid) gfinput gfoldprint iop(6/7=3) symme
 try=loose pop = full
 ----------------------------------------------------------------------

 ------------------------
 Methane DF-BP86/def2-SVP
 ------------------------
 Symbolic Z-matrix:
 Charge =  0 Multiplicity = 2

 SCF Done:  E(UB-P86) =  -39.7925641404     A.U. after   11 cycles
 SCF Done:  E(UB-P86) =  -39.8003863879     A.U. after   11 cycles
 SCF Done:  E(UB-P86) =  -39.8026664074     A.U. after   11 cycles
 SCF Done:  E(UB-P86) =  -39.8029698859     A.U. after   11 cycles
 SCF Done:  E(UB-P86) =  -39.8030677662     A.U. after   10 cycles
 SCF Done:  E(UB-P86) =  -39.8030681283     A.U. after    7 cycles
 Optimization completed.
    -- Stationary point found.

                         Standard orientation:
 ---------------------------------------------------------------------
 Center     Atomic      Atomic             Coordinates (Angstroms)
 Number     Number       Type             X           Y           Z
 ---------------------------------------------------------------------
      1          6           0       -0.000000   -0.000000    0.000062
      2          1           0        0.000000    1.098879   -0.000124
      3          1           0        0.951657   -0.549439   -0.000124
      4          1           0       -0.951657   -0.549439   -0.000124
 ---------------------------------------------------------------------

 The electronic state is 2-A1.
 Alpha  occ. eigenvalues --   -9.93027  -0.60669  -0.37058  -0.37058  -0.19428
 Alpha virt. eigenvalues --    0.05685   0.12047   0.12047   0.40678   0.40678
 Alpha virt. eigenvalues --    0.42366   0.43409   0.58494   0.63116   0.63116
 Alpha virt. eigenvalues --    1.12993   1.12993   1.40168   1.52557   1.52557

  Beta  occ. eigenvalues --   -9.91652  -0.57364  -0.36082  -0.36082
  Beta virt. eigenvalues --   -0.09596   0.06952   0.12525   0.12525   0.41461
  Beta virt. eigenvalues --    0.41461   0.45628   0.51763   0.61349   0.63991
  Beta virt. eigenvalues --    0.63991   1.15485   1.15485   1.39707   1.52783

 Mulliken charges and spin densities:
               1          2
     1  C   -0.223448   1.141176
     2  H    0.074483  -0.047059
     3  H    0.074483  -0.047059
     4  H    0.074483  -0.047059
 Sum of Mulliken charges =  -0.00000   1.00000

 Dipole moment (field-independent basis, Debye):
    X=              0.0000    Y=             -0.0000    Z=             -0.0004  Tot=              0.0004
 Quadrupole moment (field-independent basis, Debye-Ang):
   XX=             -7.1308   YY=             -7.1308   ZZ=             -8.7354
   XY=              0.0000   XZ=             -0.0000   YZ=              0.0000

 1\1\GINC-LENOX07\FOpt\UBP86\def2SVP/W06\C1H3(2)\MARTIN\12-Jan-2018\0\\
 #P UBP86/def2SVP/W06 DenFit opt (MaxCycle=100) scf=(xqc, MaxConvention
 alCycle=500) int = (ultrafinegrid) gfinput gfoldprint iop(6/7=3) symme
 try=loose pop = full\\Methane DF-BP86/def2-SVP\\0,2\C,0.1575955313,0.1
 575955328,-0.1575955321\H,0.6063180145,0.6063180138,0.7395278037\H,0.6
 063180145,-0.7395278009,-0.6063180174\H,-0.7395278066,0.6063180138,-0.
 6063180109\\Version=ES64L-G09RevE.01\State=2-A1\HF=-39.8030681\S2=0.75
 3483\S2-1=0.\S2A=0.750006\RMSD=2.909e-09\RMSF=5.576e-06\Dipole=0.00009

 Normal termination of Gaussian 09 at Fri Jan 12 21:06:45 2018.
