 Gaussian 09, Revision E.01,
 Gaussian 09:  ES64L-G09RevE.01 30-Nov-2015

 ----------------------------------------------------------------------
 #P PBEPBE/def2SVP/W06 DenFit opt (MaxCycle=100) scf=(xqc, MaxConventio
 nalCycle=500) int = (ultrafinegrid) gfinput gfoldprint iop(6/7=3) symm
 etry=loose
 ----------------------------------------------------------------------

 -----------------------
 Methane DF-PBE/def2-SVP
 -----------------------
 Symbolic Z-matrix:
 Charge =  0 Multiplicity = 1

 SCF Done:  E(RPBE-PBE) =  -40.4146905262     A.U. after    8 cycles
 SCF Done:  E(RPBE-PBE) =  -40.4151777698     A.U. after    5 cycles
 Optimization completed.
    -- Stationary point found.

                         Standard orientation:
 ---------------------------------------------------------------------
 Center     Atomic      Atomic             Coordinates (Angstroms)
 Number     Number       Type             X           Y           Z
 ---------------------------------------------------------------------
      1          6           0        0.000000    0.000000    0.000000
      2          1           0        0.638574    0.638574    0.638574
      3          1           0       -0.638574   -0.638574    0.638574
      4          1           0        0.638574   -0.638574   -0.638574
      5          1           0       -0.638574    0.638574   -0.638574
 ---------------------------------------------------------------------

 The electronic state is 1-A1.
 Alpha  occ. eigenvalues --   -9.88580  -0.61262  -0.34073  -0.34073  -0.34073
 Alpha virt. eigenvalues --    0.05315   0.11867   0.11867   0.11867   0.38877
 Alpha virt. eigenvalues --    0.38877   0.38877   0.60034   0.63015   0.63015
 Alpha virt. eigenvalues --    0.63015   0.73111   1.03681   1.03681   1.46140

 Mulliken charges:
               1
     1  C   -0.182294
     2  H    0.045574
     3  H    0.045574
     4  H    0.045574
     5  H    0.045574
 Sum of Mulliken charges =   0.00000

 Dipole moment (field-independent basis, Debye):
    X=             -0.0000    Y=             -0.0000    Z=             -0.0000  Tot=              0.0000
 Quadrupole moment (field-independent basis, Debye-Ang):
   XX=             -8.3343   YY=             -8.3343   ZZ=             -8.3343
   XY=             -0.0000   XZ=              0.0000   YZ=             -0.0000

 Normal termination of Gaussian 09 at Mon Jan 22 14:53:58 2018.
