 Gaussian 09, Revision E.01,
 Gaussian 09:  ES64L-G09RevE.01 30-Nov-2015

 ----------------------------------------------------------------------
 #P PBE1PBE/gen opt(MaxCycle=100) scf(xqc,MaxConventionalCycle=500) int
 (ultrafinegrid) gfinput gfoldprint iop(6/7=3) symmetry=loose
 ----------------------------------------------------------------------

 -----------------------------
 Methane PBE0/C:6-31G*;H:3-21G
 -----------------------------
 Symbolic Z-matrix:
 Charge =  0 Multiplicity = 1

 SCF Done:  E(RPBE1PBE) =  -40.4471381684     A.U. after    8 cycles
 SCF Done:  E(RPBE1PBE) =  -40.4471653721     A.U. after    5 cycles
 Optimization completed.
    -- Stationary point found.

                         Standard orientation:
 ---------------------------------------------------------------------
 Center     Atomic      Atomic             Coordinates (Angstroms)
 Number     Number       Type             X           Y           Z
 ---------------------------------------------------------------------
      1          6           0        0.000000    0.000000    0.000000
      2          1           0        0.632365    0.632365    0.632365
      3          1           0       -0.632365   -0.632365    0.632365
      4          1           0        0.632365   -0.632365   -0.632365
      5          1           0       -0.632365    0.632365   -0.632365
 ---------------------------------------------------------------------

 The electronic state is 1-A1.
 Alpha  occ. eigenvalues --  -10.20126  -0.70647  -0.39584  -0.39584  -0.39584
 Alpha virt. eigenvalues --    0.16694   0.20314   0.20314   0.20314   0.55652
 Alpha virt. eigenvalues --    0.55652   0.55652   1.02952   1.02952   1.02952
 Alpha virt. eigenvalues --    1.04500   1.11651   1.66598   1.66598   2.27193

 Mulliken charges:
               1
     1  C   -0.766221
     2  H    0.191555
     3  H    0.191555
     4  H    0.191555
     5  H    0.191555
 Sum of Mulliken charges =   0.00000

 Dipole moment (field-independent basis, Debye):
    X=              0.0000    Y=             -0.0000    Z=             -0.0000  Tot=              0.0000
 Quadrupole moment (field-independent basis, Debye-Ang):
   XX=             -8.1646   YY=             -8.1646   ZZ=             -8.1646
   XY=              0.0000   XZ=             -0.0000   YZ=              0.0000

 Normal termination of Gaussian 09 at Thu Feb 15 15:26:46 2018.
