 Gaussian 09, Revision E.01,
 Gaussian 09:  ES64L-G09RevE.01 30-Nov-2015

 ----------------------------------------------------------------------
 #P PBE1PBE/ChkBasis scf(xqc,MaxConventionalCycle=500) int(ultrafinegri
 d) gfinput gfoldprint iop(6/7=3) symmetry(loose) geom(check) guess(rea
 d) freq
 ----------------------------------------------------------------------

 -----------------------------
 Methane PBE0/C:6-31G*;H:3-21G
 -----------------------------
 Structure from the checkpoint file:  "methane.pbe0gen.freq.chk"
 Charge =  0 Multiplicity = 1

                         Standard orientation:
 ---------------------------------------------------------------------
 Center     Atomic      Atomic             Coordinates (Angstroms)
 Number     Number       Type             X           Y           Z
 ---------------------------------------------------------------------
      1          6           0        0.000000    0.000000    0.000000
      2          1           0        0.632365    0.632365    0.632365
      3          1           0       -0.632365   -0.632365    0.632365
      4          1           0        0.632365   -0.632365   -0.632365
      5          1           0       -0.632365    0.632365   -0.632365
 ---------------------------------------------------------------------

 SCF Done:  E(RPBE1PBE) =  -40.4471653721     A.U. after    1 cycles

 The electronic state is 1-A1.
 Alpha  occ. eigenvalues --  -10.20126  -0.70647  -0.39584  -0.39584  -0.39584
 Alpha virt. eigenvalues --    0.16694   0.20314   0.20314   0.20314   0.55652
 Alpha virt. eigenvalues --    0.55652   0.55652   1.02952   1.02952   1.02952
 Alpha virt. eigenvalues --    1.04500   1.11651   1.66598   1.66598   2.27193

 Mulliken charges:
               1
     1  C   -0.766221
     2  H    0.191555
     3  H    0.191555
     4  H    0.191555
     5  H    0.191555
 Sum of Mulliken charges =   0.00000

 Dipole moment (field-independent basis, Debye):
    X=              0.0000    Y=              0.0000    Z=             -0.0000  Tot=              0.0000
 Quadrupole moment (field-independent basis, Debye-Ang):
   XX=             -8.1646   YY=             -8.1646   ZZ=             -8.1646
   XY=              0.0000   XZ=              0.0000   YZ=              0.0000

  Exact polarizability:  12.265  -0.000  12.265  -0.000  -0.000  12.265
 Approx polarizability:  14.256   0.000  14.256   0.000   0.000  14.256

                      1                      2                      3
                     T2                     T2                     T2
 Frequencies --   1367.9036              1367.9036              1367.9036
 Red. masses --      1.1791                 1.1791                 1.1791
 Frc consts  --      1.2999                 1.2999                 1.2999
 IR Inten    --     21.6041                21.6041                21.6041

                      4                      5                      6
                      E                      E                     A1
 Frequencies --   1595.8874              1595.8874              3071.0917
 Red. masses --      1.0078                 1.0078                 1.0078
 Frc consts  --      1.5123                 1.5123                 5.6004
 IR Inten    --      0.0000                 0.0000                 0.0000

                      7                      8                      9
                     T2                     T2                     T2
 Frequencies --   3192.0090              3192.0090              3192.0090
 Red. masses --      1.1015                 1.1015                 1.1015
 Frc consts  --      6.6126                 6.6126                 6.6126
 IR Inten    --     18.0099                18.0099                18.0099

 - Thermochemistry -
 -------------------
 Temperature   298.150 Kelvin.  Pressure   1.00000 Atm.
 Atom     1 has atomic number  6 and mass  12.00000

 Molecular mass:    16.03130 amu.
 Principal axes and moments of inertia in atomic units:
                           1         2         3
     Eigenvalues --    11.51352  11.51352  11.51352
           X            0.00000   0.31623   0.94868
           Y            0.00000   0.94868  -0.31623
           Z            1.00000  -0.00000   0.00000
 This molecule is a spherical top.
 Rotational symmetry number 12.
 Rotational temperatures (Kelvin)      7.52279     7.52279     7.52279
 Rotational constants (GHZ):         156.74968   156.74968   156.74968
 Zero-point vibrational energy     119283.3 (Joules/Mol)
                                   28.50938 (Kcal/Mol)
 Vibrational temperatures:   1968.11  1968.11  1968.11  2296.12  2296.12
          (Kelvin)           4418.61  4592.58  4592.58  4592.58

 Zero-point correction=                           0.045433 (Hartree/Particle)
 Thermal correction to Energy=                    0.048297
 Thermal correction to Enthalpy=                  0.049241
 Thermal correction to Gibbs Free Energy=         0.028104
 Sum of electronic and zero-point Energies=            -40.401733
 Sum of electronic and thermal Energies=               -40.398868
 Sum of electronic and thermal Enthalpies=             -40.397924
 Sum of electronic and thermal Free Energies=          -40.419061

                     E (Thermal)             CV                S
                      KCal/Mol        Cal/Mol-Kelvin    Cal/Mol-Kelvin
 Total                   30.307              6.423             44.487
 Electronic               0.000              0.000              0.000
 Translational            0.889              2.981             34.261
 Rotational               0.889              2.981             10.149
 Vibrational             28.529              0.461              0.077

 Optimization completed.
    -- Stationary point found.
 Normal termination of Gaussian 09 at Thu Feb 15 16:00:15 2018.
