 Gaussian 09, Revision E.01,
 Gaussian 09:  ES64L-G09RevE.01 30-Nov-2015

 ----------------------------------------------------------------------
 #P BP86/def2SVP/W06 DenFit opt (MaxCycle=100) scf=(xqc, MaxConventiona
 lCycle=500) int = (ultrafinegrid) gfinput gfoldprint iop(6/7=3) symmet
 ry=loose pop = full
 ----------------------------------------------------------------------

 ------------------------
 Methane DF-BP86/def2-SVP
 ------------------------
 Symbolic Z-matrix:
 Charge =  0 Multiplicity = 1

 SCF Done:  E(RB-P86) =  -40.4814226188     A.U. after    8 cycles
 SCF Done:  E(RB-P86) =  -40.4819733199     A.U. after    6 cycles
 Optimization completed.
    -- Stationary point found.

                         Standard orientation:
 ---------------------------------------------------------------------
 Center     Atomic      Atomic             Coordinates (Angstroms)
 Number     Number       Type             X           Y           Z
 ---------------------------------------------------------------------
      1          6           0        0.000000    0.000000    0.000000
      2          1           0        0.639050    0.639050    0.639050
      3          1           0       -0.639050   -0.639050    0.639050
      4          1           0        0.639050   -0.639050   -0.639050
      5          1           0       -0.639050    0.639050   -0.639050
 ---------------------------------------------------------------------

 The electronic state is 1-A1.
 Alpha  occ. eigenvalues --   -9.90389  -0.61603  -0.34439  -0.34439  -0.34439
 Alpha virt. eigenvalues --    0.05653   0.11968   0.11968   0.11968   0.38652
 Alpha virt. eigenvalues --    0.38652   0.38652   0.59958   0.62970   0.62970
 Alpha virt. eigenvalues --    0.62970   0.72563   1.03515   1.03515   1.45743

 Mulliken charges:
               1
     1  C   -0.195000
     2  H    0.048750
     3  H    0.048750
     4  H    0.048750
     5  H    0.048750
 Sum of Mulliken charges =  -0.00000

 Dipole moment (field-independent basis, Debye):
    X=              0.0000    Y=              0.0000    Z=             -0.0000  Tot=              0.0000
 Quadrupole moment (field-independent basis, Debye-Ang):
   XX=             -8.3280   YY=             -8.3280   ZZ=             -8.3280
   XY=              0.0000   XZ=              0.0000   YZ=             -0.0000

 Normal termination of Gaussian 09 at Fri Jan 12 18:49:11 2018.
