 Gaussian 09, Revision E.01,
 Gaussian 09:  ES64L-G09RevE.01 30-Nov-2015

 ----------------------------------------------------------------------
 #P BP86/def2TZVPP/W06 DenFit empiricaldispersion=GD3 opt(MaxCycle=100,
 VeryTight) scf(xqc,MaxConventionalCycle=500) int(ultrafinegrid) scrf(p
 cm,solvent=toluene) gfinput gfoldprint iop(6/7=3) symmetry(loose) pop=
 full pop=nbo6 pop(Allorbitals,ThreshOrbitals=5)
 ----------------------------------------------------------------------

 --------------------------------
 Water DF-BP86-D3(PCM)/def2-TZVPP
 --------------------------------
 Symbolic Z-matrix:
 Charge =  0 Multiplicity = 1

 SCF Done:  E(RB-P86) =  -76.4106543561     A.U. after    9 cycles
 SCF Done:  E(RB-P86) =  -76.4498507449     A.U. after    8 cycles
 SCF Done:  E(RB-P86) =  -76.4689765805     A.U. after    8 cycles
 SCF Done:  E(RB-P86) =  -76.4698866609     A.U. after    7 cycles
 SCF Done:  E(RB-P86) =  -76.4698973140     A.U. after    6 cycles
 SCF Done:  E(RB-P86) =  -76.4698972995     A.U. after    5 cycles
 SCF Done:  E(RB-P86) =  -76.4698972995     A.U. after    4 cycles
 Optimization completed.
    -- Stationary point found.

                         Standard orientation:
 ---------------------------------------------------------------------
 Center     Atomic      Atomic             Coordinates (Angstroms)
 Number     Number       Type             X           Y           Z
 ---------------------------------------------------------------------
      1          8           0        0.000000    0.000000    0.119729
      2          1           0       -0.000000    0.763896   -0.478917
      3          1           0       -0.000000   -0.763896   -0.478917
 ---------------------------------------------------------------------

 The electronic state is 1-A1.
 Alpha  occ. eigenvalues --  -18.76849  -0.92520  -0.47786  -0.34260  -0.26448
 Alpha virt. eigenvalues --    0.00499   0.08254   0.32324   0.36455   0.37610
 Alpha virt. eigenvalues --    0.38921   0.50091   0.52405   0.60161   0.63619
 Alpha virt. eigenvalues --    0.72263   0.96183   1.11837   1.17423   1.66710

 Mulliken charges:
               1
     1  O   -0.424516
     2  H    0.212258
     3  H    0.212258
 Sum of Mulliken charges =   0.00000

 Dipole moment (field-independent basis, Debye):
    X=             -0.0000    Y=             -0.0000    Z=             -2.0425  Tot=              2.0425
 Quadrupole moment (field-independent basis, Debye-Ang):
   XX=             -7.5927   YY=             -4.3881   ZZ=             -6.3112
   XY=              0.0000   XZ=              0.0000   YZ=              0.0000

 Summary of Natural Population Analysis:

                                     Natural Population
             Natural    ---------------------------------------------
  Atom No    Charge        Core      Valence    Rydberg      Total
 --------------------------------------------------------------------
    O  1   -0.93290      1.99999     6.91025    0.02265     8.93290
    H  2    0.46645      0.00000     0.52977    0.00378     0.53355
    H  3    0.46645      0.00000     0.52977    0.00378     0.53355
 ====================================================================
 * Total *  0.00000      1.99999     7.96980    0.03020    10.00000

 Normal termination of Gaussian 09 at Tue Jan  9 18:58:29 2018.
