 Gaussian 09, Revision E.01,
 Gaussian 09:  ES64L-G09RevE.01 30-Nov-2015

 ----------------------------------------------------------------------
 #P BP86/def2TZVPP/W06 DenFit empiricaldispersion=GD3 freq geom=check g
 uess=read scf(xqc,MaxConventionalCycle=500) int(ultrafinegrid) scrf(pc
 m,solvent=toluene) gfinput gfoldprint iop(6/7=3) symmetry(loose) pop=f
 ull pop=nbo6 pop(Allorbitals,ThreshOrbitals=5)
 ----------------------------------------------------------------------

 --------------------------------
 Water DF-BP86-D3(PCM)/def2-TZVPP
 --------------------------------
 Structure from the checkpoint file:  "h2o.df-bp86-d3.def2tzvpp.freq.chk"
 Charge =  0 Multiplicity = 1

                         Standard orientation:
 ---------------------------------------------------------------------
 Center     Atomic      Atomic             Coordinates (Angstroms)
 Number     Number       Type             X           Y           Z
 ---------------------------------------------------------------------
      1          8           0        0.000000   -0.000000    0.119729
      2          1           0       -0.000000    0.763896   -0.478917
      3          1           0       -0.000000   -0.763896   -0.478917
 ---------------------------------------------------------------------

 SCF Done:  E(RB-P86) =  -76.4698972995     A.U. after    1 cycles

 The electronic state is 1-A1.
 Alpha  occ. eigenvalues --  -18.76849  -0.92520  -0.47786  -0.34260  -0.26448
 Alpha virt. eigenvalues --    0.00499   0.08254   0.32324   0.36455   0.37610
 Alpha virt. eigenvalues --    0.38921   0.50091   0.52405   0.60161   0.63619
 Alpha virt. eigenvalues --    0.72263   0.96183   1.11837   1.17423   1.66710

 Mulliken charges:
               1
     1  O   -0.424516
     2  H    0.212258
     3  H    0.212258
 Sum of Mulliken charges =  -0.00000

 Dipole moment (field-independent basis, Debye):
    X=             -0.0000    Y=              0.0000    Z=             -2.0425  Tot=              2.0425
 Quadrupole moment (field-independent basis, Debye-Ang):
   XX=             -7.5927   YY=             -4.3881   ZZ=             -6.3112
   XY=              0.0000   XZ=              0.0000   YZ=             -0.0000

  Exact polarizability:   6.661  -0.000   9.427   0.000   0.000   8.418
 Approx polarizability:   7.608   0.000  12.683   0.000  -0.000  11.018

 Summary of Natural Population Analysis:

                                     Natural Population
             Natural    ---------------------------------------------
  Atom No    Charge        Core      Valence    Rydberg      Total
 --------------------------------------------------------------------
    O  1   -0.93290      1.99999     6.91025    0.02265     8.93290
    H  2    0.46645      0.00000     0.52977    0.00378     0.53355
    H  3    0.46645      0.00000     0.52977    0.00378     0.53355
 ====================================================================
 * Total *  0.00000      1.99999     7.96980    0.03020    10.00000

                      1                      2                      3
                     A1                     A1                     B2
 Frequencies --   1593.8880              3690.2311              3788.6736
 Red. masses --      1.0827                 1.0452                 1.0812
 Frc consts  --      1.6205                 8.3860                 9.1438
 IR Inten    --     72.4750                 4.8866                52.1808

 - Thermochemistry -
 -------------------
 Temperature   298.150 Kelvin.  Pressure   1.00000 Atm.
 Atom     1 has atomic number  8 and mass  15.99491

 Molecular mass:    18.01056 amu.
 Principal axes and moments of inertia in atomic units:
                           1         2         3
     Eigenvalues --     2.29091   4.20031   6.49122
           X           -0.00000   0.00000   1.00000
           Y            1.00000   0.00000   0.00000
           Z           -0.00000   1.00000  -0.00000
 This molecule is an asymmetric top.
 Rotational symmetry number  2.
 Rotational temperatures (Kelvin)     37.80764    20.62080    13.34323
 Rotational constants (GHZ):         787.78434   429.66832   278.02804
 Zero-point vibrational energy      54267.4 (Joules/Mol)
                                   12.97021 (Kcal/Mol)
 Vibrational temperatures:   2293.25  5309.41  5451.05
          (Kelvin)

 Zero-point correction=                           0.020669 (Hartree/Particle)
 Thermal correction to Energy=                    0.023505
 Thermal correction to Enthalpy=                  0.024449
 Thermal correction to Gibbs Free Energy=         0.002997
 Sum of electronic and zero-point Energies=            -76.449228
 Sum of electronic and thermal Energies=               -76.446392
 Sum of electronic and thermal Enthalpies=             -76.445448
 Sum of electronic and thermal Free Energies=          -76.466900

                     E (Thermal)             CV                S
                      KCal/Mol        Cal/Mol-Kelvin    Cal/Mol-Kelvin
 Total                   14.750              6.015             45.150
 Electronic               0.000              0.000              0.000
 Translational            0.889              2.981             34.608
 Rotational               0.889              2.981             10.534
 Vibrational             12.972              0.054              0.008

 Optimization completed.
    -- Stationary point found.
 Normal termination of Gaussian 09 at Tue Jan  9 19:10:14 2018.
