 Gaussian 09, Revision E.01,
 Gaussian 09:  ES64L-G09RevE.01 30-Nov-2015

 ----------------------------------------------------------------------
 #p MP2/def2SVP opt scf(xqc) gfinput gfoldprint iop(6/7=3) scrf(pcm,sol
 vent=toluene) pop=full pop=nbo6 pop=allorbitals
 ----------------------------------------------------------------------

 ------------------
 Water MP2/def2-SVP
 ------------------
 Symbolic Z-matrix:
 Charge =  0 Multiplicity = 1

 SCF Done:  E(RHF) =  -75.8780485193     A.U. after   10 cycles
 E2 =    -0.2180043357D+00 EUMP2 =    -0.76096052854972D+02
 SCF Done:  E(RHF) =  -75.9300978746     A.U. after   10 cycles
 E2 =    -0.2103781748D+00 EUMP2 =    -0.76140476049458D+02
 SCF Done:  E(RHF) =  -75.9646429754     A.U. after   10 cycles
 E2 =    -0.1993346099D+00 EUMP2 =    -0.76163977585353D+02
 SCF Done:  E(RHF) =  -75.9641598813     A.U. after    9 cycles
 E2 =    -0.2014052615D+00 EUMP2 =    -0.76165565142798D+02
 SCF Done:  E(RHF) =  -75.9640946084     A.U. after    8 cycles
 E2 =    -0.2014868677D+00 EUMP2 =    -0.76165581476178D+02
 Optimization completed.
    -- Stationary point found.

                         Standard orientation:
 ---------------------------------------------------------------------
 Center     Atomic      Atomic             Coordinates (Angstroms)
 Number     Number       Type             X           Y           Z
 ---------------------------------------------------------------------
      1          8           0       -0.000000    0.000000    0.121014
      2          1           0       -0.000000    0.749493   -0.484056
      3          1           0       -0.000000   -0.749493   -0.484056
 ---------------------------------------------------------------------

 The electronic state is 1-A1.
 Alpha  occ. eigenvalues --  -20.54818  -1.31799  -0.69593  -0.57451  -0.50010
 Alpha virt. eigenvalues --    0.18117   0.26176   0.78361   0.87666   1.18012
 Alpha virt. eigenvalues --    1.19859   1.26997   1.34644   1.60675   1.63383
 Alpha virt. eigenvalues --    1.79550   2.07219   2.54593   2.59542   3.33310

 Mulliken charges:
               1
     1  O   -0.370654
     2  H    0.185327
     3  H    0.185327
 Sum of Mulliken charges =  -0.00000

 Dipole moment (field-independent basis, Debye):
    X=             -0.0000    Y=             -0.0000    Z=             -2.2693  Tot=              2.2693
 Quadrupole moment (field-independent basis, Debye-Ang):
   XX=             -7.0593   YY=             -4.1852   ZZ=             -5.8538
   XY=              0.0000   XZ=              0.0000   YZ=             -0.0000

 Summary of Natural Population Analysis:

                                     Natural Population
             Natural    ---------------------------------------------
  Atom No    Charge        Core      Valence    Rydberg      Total
 --------------------------------------------------------------------
    O  1   -0.92958      1.99998     6.91649    0.01311     8.92958
    H  2    0.46479      0.00000     0.52933    0.00588     0.53521
    H  3    0.46479      0.00000     0.52933    0.00588     0.53521
 ====================================================================
 * Total *  0.00000      1.99998     7.97515    0.02487    10.00000

 Normal termination of Gaussian 09 at Tue Jan  9 18:58:14 2018.
