 Gaussian 09, Revision E.01,
 Gaussian 09:  ES64L-G09RevE.01 30-Nov-2015

 ----------------------------
 #p BP86/cc-pVTZ pop=nbo freq
 ----------------------------

 ------------------
 Water BP86/cc-pVTZ
 ------------------
 Symbolic Z-matrix:
 Charge =  0 Multiplicity = 1

                         Standard orientation:
 ---------------------------------------------------------------------
 Center     Atomic      Atomic             Coordinates (Angstroms)
 Number     Number       Type             X           Y           Z
 ---------------------------------------------------------------------
      1          8           0        0.000000    0.000000    0.139369
      2          1           0       -0.000000    0.976939   -0.557475
      3          1           0       -0.000000   -0.976939   -0.557475
 ---------------------------------------------------------------------

 SCF Done:  E(RB-P86) =  -76.4006006969     A.U. after   10 cycles

 The electronic state is 1-A1.
 Alpha  occ. eigenvalues --  -18.79036  -0.84680  -0.41425  -0.31430  -0.23929
 Alpha virt. eigenvalues --   -0.05666   0.00841   0.27330   0.27751   0.47241
 Alpha virt. eigenvalues --    0.51301   0.57896   0.58544   0.62209   0.74678
 Alpha virt. eigenvalues --    0.84452   0.94366   1.06451   1.08283   1.57851

 Mulliken charges:
               1
     1  O   -0.504107
     2  H    0.252053
     3  H    0.252053
 Sum of Mulliken charges =  -0.00000

 Dipole moment (field-independent basis, Debye):
    X=             -0.0000    Y=             -0.0000    Z=             -1.8107  Tot=              1.8107
 Quadrupole moment (field-independent basis, Debye-Ang):
   XX=             -7.8512   YY=             -3.7048   ZZ=             -6.4004
   XY=              0.0000   XZ=              0.0000   YZ=              0.0000

  Exact polarizability:   5.837   0.000  14.900  -0.000   0.000   9.860
 Approx polarizability:   7.065   0.000  24.999   0.000   0.000  17.080

 Summary of Natural Population Analysis:

                                       Natural Population
                Natural  -----------------------------------------------
    Atom  No    Charge         Core      Valence    Rydberg      Total
 -----------------------------------------------------------------------
      O    1   -0.89710      1.99995     6.89025    0.00690     8.89710
      H    2    0.44855      0.00000     0.54583    0.00562     0.55145
      H    3    0.44855      0.00000     0.54583    0.00562     0.55145
 =======================================================================
   * Total *   -0.00000      1.99995     7.98191    0.01814    10.00000

                      1                      2                      3
                     A1                     B2                     A1
 Frequencies --   1359.9676              1541.3689              1629.2352
 Red. masses --      1.0366                 1.0863                 1.0920
 Frc consts  --      1.1296                 1.5206                 1.7078
 IR Inten    --      1.6639                12.1653                58.4647

 - Thermochemistry -
 -------------------
 Temperature   298.150 Kelvin.  Pressure   1.00000 Atm.
 Atom     1 has atomic number  8 and mass  15.99491

 Molecular mass:    18.01056 amu.
 Principal axes and moments of inertia in atomic units:
                           1         2         3
     Eigenvalues --     3.10412   6.86985   9.97397
           X            0.00000   0.00000   1.00000
           Y            1.00000  -0.00000  -0.00000
           Z            0.00000   1.00000  -0.00000
 This molecule is an asymmetric top.
 Rotational symmetry number  2.
 Rotational temperatures (Kelvin)     27.90289    12.60781     8.68399
 Rotational constants (GHZ):         581.40250   262.70449   180.94513
 Zero-point vibrational energy      27098.8 (Joules/Mol)
                                    6.47678 (Kcal/Mol)
 Vibrational temperatures:   1956.69  2217.68  2344.10
          (Kelvin)

 Zero-point correction=                           0.010321 (Hartree/Particle)
 Thermal correction to Energy=                    0.013170
 Thermal correction to Enthalpy=                  0.014114
 Thermal correction to Gibbs Free Energy=        -0.007931
 Sum of electronic and zero-point Energies=            -76.390279
 Sum of electronic and thermal Energies=               -76.387431
 Sum of electronic and thermal Enthalpies=             -76.386487
 Sum of electronic and thermal Free Energies=          -76.408532

                     E (Thermal)             CV                S
                      KCal/Mol        Cal/Mol-Kelvin    Cal/Mol-Kelvin
 Total                    8.264              6.195             46.397
 Electronic               0.000              0.000              0.000
 Translational            0.889              2.981             34.608
 Rotational               0.889              2.981             11.751
 Vibrational              6.487              0.233              0.038

 Normal termination of Gaussian 09 at Tue Jan  9 18:55:01 2018.
