 Gaussian 09, Revision E.01,
 Gaussian 09:  ES64L-G09RevE.01 30-Nov-2015

 ----------------------------------------------------------------------
 #p MP4/def2SVP opt scf(xqc) gfinput gfoldprint iop(6/7=3) scrf(pcm,sol
 vent=toluene) pop=full pop=nbo6 pop=allorbitals symmetry=loose
 ----------------------------------------------------------------------

 ------------------
 Water MP4/def2-SVP
 ------------------
 Symbolic Z-matrix:
 Charge =  0 Multiplicity = 1

 SCF Done:  E(RHF) =  -75.8780485193     A.U. after   10 cycles
 E2 =    -0.2180043357D+00 EUMP2 =    -0.76096052854972D+02
 SCF Done:  E(RHF) =  -75.8778529684     A.U. after    8 cycles
 E2 =    -0.2180345705D+00 EUMP2 =    -0.76095887538888D+02
 SCF Done:  E(RHF) =  -75.8782439926     A.U. after    8 cycles
 E2 =    -0.2179741106D+00 EUMP2 =    -0.76096218103160D+02
 SCF Done:  E(RHF) =  -75.8780292087     A.U. after    7 cycles
 E2 =    -0.2179988422D+00 EUMP2 =    -0.76096028050884D+02
 SCF Done:  E(RHF) =  -75.8780677591     A.U. after    7 cycles
 E2 =    -0.2180098338D+00 EUMP2 =    -0.76096077592895D+02
 SCF Done:  E(RHF) =  -75.9475165836     A.U. after   10 cycles
 E2 =    -0.2065539685D+00 EUMP2 =    -0.76154070552135D+02
 SCF Done:  E(RHF) =  -75.9474067675     A.U. after    7 cycles
 E2 =    -0.2065785205D+00 EUMP2 =    -0.76153985288013D+02
 SCF Done:  E(RHF) =  -75.9475071308     A.U. after    7 cycles
 E2 =    -0.2065496152D+00 EUMP2 =    -0.76154056745997D+02
 SCF Done:  E(RHF) =  -75.9554626376     A.U. after   10 cycles
 E2 =    -0.1961588265D+00 EUMP2 =    -0.76151621464084D+02
 SCF Done:  E(RHF) =  -75.9555661344     A.U. after    7 cycles
 E2 =    -0.1961790887D+00 EUMP2 =    -0.76151745223049D+02
 E2 =    -0.1961554497D+00 EUMP2 =    -0.76151624655781D+02
 E2 =    -0.2028632485D+00 EUMP2 =    -0.76164893957595D+02
 E2 =    -0.2028863010D+00 EUMP2 =    -0.76164870424863D+02
 E2 =    -0.2028586335D+00 EUMP2 =    -0.76164893364431D+02
 E2 =    -0.2018708735D+00 EUMP2 =    -0.76165523941685D+02
 E2 =    -0.2018934897D+00 EUMP2 =    -0.76165516822602D+02
 SCF Done:  E(RHF) =  -75.9636572855     A.U. after    7 cycles
 E2 =    -0.2018664446D+00 EUMP2 =    -0.76165523730083D+02
 SCF Done:  E(RHF) =  -75.9640644469     A.U. after    8 cycles
 E2 =    -0.2015164480D+00 EUMP2 =    -0.76165580894922D+02
 SCF Done:  E(RHF) =  -75.9640410594     A.U. after    7 cycles
 E2 =    -0.2015389090D+00 EUMP2 =    -0.76165579968453D+02
 SCF Done:  E(RHF) =  -75.9640687088     A.U. after    7 cycles
 E2 =    -0.2015120882D+00 EUMP2 =    -0.76165580796977D+02
 SCF Done:  E(RHF) =  -75.9640600989     A.U. after    7 cycles
 E2 =    -0.2015208152D+00 EUMP2 =    -0.76165580914077D+02
 SCF Done:  E(RHF) =  -75.9640464377     A.U. after    7 cycles
 E2 =    -0.2015337959D+00 EUMP2 =    -0.76165580233557D+02
 SCF Done:  E(RHF) =  -75.9640227215     A.U. after    7 cycles
 E2 =    -0.2015562647D+00 EUMP2 =    -0.76165578986248D+02
 SCF Done:  E(RHF) =  -75.9640697248     A.U. after    7 cycles
 E2 =    -0.2015113319D+00 EUMP2 =    -0.76165581056728D+02
 SCF Done:  E(RHF) =  -75.9640506863     A.U. after    7 cycles
 E2 =    -0.2015294335D+00 EUMP2 =    -0.76165580119806D+02
 SCF Done:  E(RHF) =  -75.9640421029     A.U. after    7 cycles
 E2 =    -0.2015381661D+00 EUMP2 =    -0.76165580268970D+02

                         Standard orientation:
 ---------------------------------------------------------------------
 Center     Atomic      Atomic             Coordinates (Angstroms)
 Number     Number       Type             X           Y           Z
 ---------------------------------------------------------------------
      1          8           0       -0.000000    0.000000    0.121072
      2          1           0       -0.000000    0.750198   -0.484286
      3          1           0       -0.000000   -0.750198   -0.484286
 ---------------------------------------------------------------------

 The electronic state is 1-A1.
 Alpha  occ. eigenvalues --  -20.54830  -1.31762  -0.69552  -0.57440  -0.50005
 Alpha virt. eigenvalues --    0.18105   0.26165   0.78304   0.87596   1.18015
 Alpha virt. eigenvalues --    1.19859   1.27004   1.34649   1.60662   1.63381
 Alpha virt. eigenvalues --    1.79530   2.07142   2.54411   2.59380   3.33246

 Mulliken charges:
               1
     1  O   -0.371468
     2  H    0.185734
     3  H    0.185734
 Sum of Mulliken charges =  -0.00000

 Dipole moment (field-independent basis, Debye):
    X=             -0.0000    Y=              0.0000    Z=             -2.2705  Tot=              2.2705
 Quadrupole moment (field-independent basis, Debye-Ang):
   XX=             -7.0609   YY=             -4.1812   ZZ=             -5.8560
   XY=              0.0000   XZ=              0.0000   YZ=              0.0000

 Summary of Natural Population Analysis:

                                     Natural Population
             Natural    ---------------------------------------------
  Atom No    Charge        Core      Valence    Rydberg      Total
 --------------------------------------------------------------------
    O  1   -0.92989      1.99998     6.91685    0.01306     8.92989
    H  2    0.46495      0.00000     0.52917    0.00588     0.53505
    H  3    0.46495      0.00000     0.52917    0.00588     0.53505
 ====================================================================
 * Total *  0.00000      1.99998     7.97520    0.02482    10.00000

 Normal termination of Gaussian 09 at Tue Jan  9 19:00:09 2018.
