 Gaussian 09, Revision E.01,
 Gaussian 09:  ES64L-G09RevE.01 30-Nov-2015

 ----------------------------------------------------------------------
 #p b2plyp/def2SVP opt scf(xqc) gfinput gfoldprint iop(6/7=3) scrf(pcm,
 solvent=toluene) pop=full pop=nbo6 pop=allorbitals symmetry=loose
 ----------------------------------------------------------------------

 ---------------------
 Water B2PLYP/def2-SVP
 ---------------------
 Symbolic Z-matrix:
 Charge =  0 Multiplicity = 1

 SCF Done:  E(RB2PLYP) =  -76.1536666747     A.U. after    9 cycles
 E2(B2PLYP) =    -0.7211441441D-01 E(B2PLYP) =    -0.76225781089103D+02
 SCF Done:  E(RB2PLYP) =  -76.2001436363     A.U. after    9 cycles
 E2(B2PLYP) =    -0.6854867219D-01 E(B2PLYP) =    -0.76268692308483D+02
 SCF Done:  E(RB2PLYP) =  -76.2273315944     A.U. after    9 cycles
 E2(B2PLYP) =    -0.6383910846D-01 E(B2PLYP) =    -0.76291170702819D+02
 SCF Done:  E(RB2PLYP) =  -76.2278641406     A.U. after    8 cycles
 E2(B2PLYP) =    -0.6464348226D-01 E(B2PLYP) =    -0.76292507622843D+02
 SCF Done:  E(RB2PLYP) =  -76.2278509311     A.U. after    7 cycles
 E2(B2PLYP) =    -0.6466975917D-01 E(B2PLYP) =    -0.76292520690222D+02
 Optimization completed.
    -- Stationary point found.

                         Standard orientation:
 ---------------------------------------------------------------------
 Center     Atomic      Atomic             Coordinates (Angstroms)
 Number     Number       Type             X           Y           Z
 ---------------------------------------------------------------------
      1          8           0        0.000000    0.000000    0.120466
      2          1           0       -0.000000    0.753302   -0.481863
      3          1           0       -0.000000   -0.753302   -0.481863
 ---------------------------------------------------------------------

 The electronic state is 1-A1.
 Alpha  occ. eigenvalues --  -19.71682  -1.11995  -0.58784  -0.45528  -0.37962
 Alpha virt. eigenvalues --    0.10383   0.18490   0.64948   0.72770   1.02188
 Alpha virt. eigenvalues --    1.03231   1.11308   1.19851   1.45643   1.49361
 Alpha virt. eigenvalues --    1.64754   1.90693   2.34482   2.39243   3.11400

 Mulliken charges:
               1
     1  O   -0.339074
     2  H    0.169537
     3  H    0.169537
 Sum of Mulliken charges =  -0.00000

 Dipole moment (field-independent basis, Debye):
    X=             -0.0000    Y=              0.0000    Z=             -2.1739  Tot=              2.1739
 Quadrupole moment (field-independent basis, Debye-Ang):
   XX=             -7.0239   YY=             -4.2419   ZZ=             -5.8837
   XY=              0.0000   XZ=              0.0000   YZ=             -0.0000

 Summary of Natural Population Analysis:

                                     Natural Population
             Natural    ---------------------------------------------
  Atom No    Charge        Core      Valence    Rydberg      Total
 --------------------------------------------------------------------
    O  1   -0.91688      1.99998     6.90282    0.01408     8.91688
    H  2    0.45844      0.00000     0.53572    0.00583     0.54156
    H  3    0.45844      0.00000     0.53572    0.00583     0.54156
 ====================================================================
 * Total *  0.00000      1.99998     7.97427    0.02575    10.00000

 Normal termination of Gaussian 09 at Tue Jan  9 18:48:29 2018.
