 Gaussian 09, Revision E.01,
 Gaussian 09:  ES64L-G09RevE.01 30-Nov-2015

 ----------------------------------------------------------------------
 #p CCSD-T/def2SVP scf(xqc) gfinput gfoldprint iop(6/7=3) scrf(pcm,solv
 ent=toluene) pop=full pop=nbo6 pop=allorbitals symmetry=loose
 ----------------------------------------------------------------------

 ----------------------
 Water CCSD(T)/def2-SVP
 ----------------------
 Symbolic Z-matrix:
 Charge =  0 Multiplicity = 1

                         Standard orientation:
 ---------------------------------------------------------------------
 Center     Atomic      Atomic             Coordinates (Angstroms)
 Number     Number       Type             X           Y           Z
 ---------------------------------------------------------------------
      1          8           0        0.000000    0.000000    0.139369
      2          1           0       -0.000000    0.976939   -0.557475
      3          1           0       -0.000000   -0.976939   -0.557475
 ---------------------------------------------------------------------

 SCF Done:  E(RHF) =  -75.8780485193     A.U. after   10 cycles
 E2 =    -0.2180043357D+00 EUMP2 =    -0.76096052854972D+02
 CCSD(T)
 CCSD(T)= -0.76110694639D+02

 The electronic state is 1-A1.
 Alpha  occ. eigenvalues --  -20.57736  -1.22576  -0.59867  -0.51973  -0.48725
 Alpha virt. eigenvalues --    0.13191   0.21103   0.67937   0.68399   1.17730
 Alpha virt. eigenvalues --    1.18198   1.29957   1.35201   1.57182   1.75759
 Alpha virt. eigenvalues --    1.79509   1.84037   2.08427   2.19359   3.12751

 Mulliken charges:
               1
     1  O   -0.565693
     2  H    0.282847
     3  H    0.282847
 Sum of Mulliken charges =   0.00000

 Dipole moment (field-independent basis, Debye):
    X=             -0.0000    Y=             -0.0000    Z=             -2.3730  Tot=              2.3730
 Quadrupole moment (field-independent basis, Debye-Ang):
   XX=             -7.5664   YY=             -3.1621   ZZ=             -6.0715
   XY=              0.0000   XZ=              0.0000   YZ=              0.0000

 Summary of Natural Population Analysis:

                                     Natural Population
             Natural    ---------------------------------------------
  Atom No    Charge        Core      Valence    Rydberg      Total
 --------------------------------------------------------------------
    O  1   -0.96077      1.99999     6.95543    0.00536     8.96077
    H  2    0.48039      0.00000     0.51582    0.00379     0.51961
    H  3    0.48039      0.00000     0.51582    0.00379     0.51961
 ====================================================================
 * Total *  0.00000      1.99999     7.98706    0.01294    10.00000

 002\MP4DQ=-76.1036236\MP4SDQ=-76.1053163\CCSD=-76.1062691\CCSD(T)=-76.
 Normal termination of Gaussian 09 at Tue Jan  9 18:54:55 2018.
