 Gaussian 09, Revision E.01,
 Gaussian 09:  ES64L-G09RevE.01 30-Nov-2015

 ----------------------------------------------------------------------
 #p MP4/def2SVP freq geom=check guess=read gfinput gfoldprint iop(6/7=3
 ) scrf(pcm,solvent=toluene) pop=full pop=nbo6 pop=allorbitals symmetry
 =loose
 ----------------------------------------------------------------------

 ------------------
 Water MP4/def2-SVP
 ------------------
 Structure from the checkpoint file:  "h2o.mp4.def2svp.nbo6.freq.chk"
 Charge =  0 Multiplicity = 1

                         Standard orientation:
 ---------------------------------------------------------------------
 Center     Atomic      Atomic             Coordinates (Angstroms)
 Number     Number       Type             X           Y           Z
 ---------------------------------------------------------------------
      1          8           0        0.000000    0.000000    0.121072
      2          1           0        0.000000    0.750198   -0.484286
      3          1           0       -0.000000   -0.750198   -0.484286
 ---------------------------------------------------------------------

 SCF Done:  E(RHF) =  -75.9640464377     A.U. after    6 cycles
 E2 =    -0.2015337962D+00 EUMP2 =    -0.76165580233858D+02
 SCF Done:  E(RHF) =  -75.9640419124     A.U. after    6 cycles
 E2 =    -0.2015381795D+00 EUMP2 =    -0.76165580091867D+02
 SCF Done:  E(RHF) =  -75.9639237635     A.U. after    9 cycles
 E2 =    -0.2015345131D+00 EUMP2 =    -0.76165458276612D+02
 SCF Done:  E(RHF) =  -75.9634058304     A.U. after    9 cycles
 E2 =    -0.2020702895D+00 EUMP2 =    -0.76165476119902D+02
 SCF Done:  E(RHF) =  -75.9645022038     A.U. after    9 cycles
 E2 =    -0.2010088479D+00 EUMP2 =    -0.76165511051685D+02
 SCF Done:  E(RHF) =  -75.9640445474     A.U. after    6 cycles
 E2 =    -0.2015356387D+00 EUMP2 =    -0.76165580186123D+02
 SCF Done:  E(RHF) =  -75.9637422013     A.U. after    8 cycles
 E2 =    -0.2017592755D+00 EUMP2 =    -0.76165501476742D+02
 SCF Done:  E(RHF) =  -75.9642152557     A.U. after    8 cycles
 E2 =    -0.2013103942D+00 EUMP2 =    -0.76165525649849D+02
 SCF Done:  E(RHF) =  -75.9642774994     A.U. after    8 cycles
 E2 =    -0.2012700327D+00 EUMP2 =    -0.76165547532109D+02
 SCF Done:  E(RHF) =  -75.9637292454     A.U. after    8 cycles
 E2 =    -0.2018007442D+00 EUMP2 =    -0.76165529989587D+02
 E2 =    -0.2015356387D+00 EUMP2 =    -0.76165580186123D+02
 E2 =    -0.2017592755D+00 EUMP2 =    -0.76165501476742D+02
 E2 =    -0.2013103942D+00 EUMP2 =    -0.76165525649849D+02
 E2 =    -0.2022935096D+00 EUMP2 =    -0.76165326478488D+02
 E2 =    -0.2007831264D+00 EUMP2 =    -0.76165375460107D+02
 E2 =    -0.2012677973D+00 EUMP2 =    -0.76165321765300D+02
 E2 =    -0.2017985011D+00 EUMP2 =    -0.76165314906659D+02
 E2 =    -0.2018007442D+00 EUMP2 =    -0.76165529989587D+02
 SCF Done:  E(RHF) =  -75.9642774994     A.U. after    8 cycles
 E2 =    -0.2012700327D+00 EUMP2 =    -0.76165547532110D+02
 SCF Done:  E(RHF) =  -75.9640568685     A.U. after    8 cycles
 E2 =    -0.2014981148D+00 EUMP2 =    -0.76165554983287D+02
 SCF Done:  E(RHF) =  -75.9639833376     A.U. after    8 cycles
 E2 =    -0.2015799841D+00 EUMP2 =    -0.76165563321702D+02
 SCF Done:  E(RHF) =  -75.9640419124     A.U. after    6 cycles
 E2 =    -0.2015381795D+00 EUMP2 =    -0.76165580091867D+02
 SCF Done:  E(RHF) =  -75.9639237635     A.U. after    9 cycles
 E2 =    -0.2015345131D+00 EUMP2 =    -0.76165458276612D+02
 SCF Done:  E(RHF) =  -75.9639237635     A.U. after    9 cycles
 E2 =    -0.2015345131D+00 EUMP2 =    -0.76165458276612D+02
 SCF Done:  E(RHF) =  -75.9644574175     A.U. after    8 cycles
 E2 =    -0.2010469386D+00 EUMP2 =    -0.76165504356114D+02
 SCF Done:  E(RHF) =  -75.9634357650     A.U. after    9 cycles
 E2 =    -0.2020265842D+00 EUMP2 =    -0.76165462349115D+02
 SCF Done:  E(RHF) =  -75.9645022038     A.U. after    9 cycles
 E2 =    -0.2010088479D+00 EUMP2 =    -0.76165511051686D+02
 SCF Done:  E(RHF) =  -75.9634058304     A.U. after    9 cycles
 E2 =    -0.2020702895D+00 EUMP2 =    -0.76165476119902D+02

 Alpha  occ. eigenvalues --  -20.54972  -1.31512  -0.69053  -0.57495  -0.49989
 Alpha virt. eigenvalues --    0.17996   0.26072   0.77572   0.87299   1.18043
 Alpha virt. eigenvalues --    1.19837   1.27133   1.34886   1.60822   1.62318
 Alpha virt. eigenvalues --    1.78927   2.07001   2.52710   2.58085   3.33089

 Mulliken charges:
               1
     1  O   -0.376534
     2  H    0.188267
     3  H    0.188267
 Sum of Mulliken charges =  -0.00000

 Dipole moment (field-independent basis, Debye):
    X=             -0.0000    Y=              0.0000    Z=             -2.2927  Tot=              2.2927
 Quadrupole moment (field-independent basis, Debye-Ang):
   XX=             -7.0744   YY=             -4.2096   ZZ=             -5.8215
   XY=              0.0000   XZ=             -0.0000   YZ=              0.0000

 Summary of Natural Population Analysis:

                                     Natural Population
             Natural    ---------------------------------------------
  Atom No    Charge        Core      Valence    Rydberg      Total
 --------------------------------------------------------------------
    O  1   -0.93142      1.99998     6.91870    0.01273     8.93142
    H  2    0.46571      0.00000     0.52840    0.00589     0.53429
    H  3    0.46571      0.00000     0.52840    0.00589     0.53429
 ====================================================================
 * Total *  0.00000      1.99998     7.97550    0.02452    10.00000

                      1                      2                      3
                     A1                     A1                     B2
 Frequencies --   1664.9863              3873.8931              3972.3977
 Red. masses --      1.0804                 1.0473                 1.0796
 Frc consts  --      1.7646                 9.2602                10.0369
 IR Inten    --      0.0000                 0.0000                 0.0000

 - Thermochemistry -
 -------------------
 Temperature   298.150 Kelvin.  Pressure   1.00000 Atm.
 Atom     1 has atomic number  8 and mass  15.99491

 Molecular mass:    18.01056 amu.
 Principal axes and moments of inertia in atomic units:
                           1         2         3
     Eigenvalues --     2.34257   4.05102   6.39359
           X            0.00000   0.00000   1.00000
           Y            1.00000  -0.00000  -0.00000
           Z            0.00000   1.00000  -0.00000
 This molecule is an asymmetric top.
 Rotational symmetry number  2.
 Rotational temperatures (Kelvin)     36.97388    21.38073    13.54698
 Rotational constants (GHZ):         770.41159   445.50265   282.27353
 Zero-point vibrational energy      56890.1 (Joules/Mol)
                                   13.59705 (Kcal/Mol)
 Vibrational temperatures:   2395.54  5573.66  5715.39
          (Kelvin)

 Zero-point correction=                           0.021668 (Hartree/Particle)
 Thermal correction to Energy=                    0.024503
 Thermal correction to Enthalpy=                  0.025447
 Thermal correction to Gibbs Free Energy=         0.004010
 Sum of electronic and zero-point Energies=            -76.156055
 Sum of electronic and thermal Energies=               -76.153220
 Sum of electronic and thermal Enthalpies=             -76.152276
 Sum of electronic and thermal Free Energies=          -76.173713

                     E (Thermal)             CV                S
                      KCal/Mol        Cal/Mol-Kelvin    Cal/Mol-Kelvin
 Total                   15.376              6.003             45.119
 Electronic               0.000              0.000              0.000
 Translational            0.889              2.981             34.608
 Rotational               0.889              2.981             10.505
 Vibrational             13.599              0.042              0.006

 Optimization completed.
    -- Stationary point found.
 Normal termination of Gaussian 09 at Tue Jan  9 19:12:54 2018.
