 Gaussian 09, Revision E.01,
 Gaussian 09:  ES64L-G09RevE.01 30-Nov-2015

 ----------------------------------------------------------------------
 #p MP5/def2SVP opt scf(xqc) gfinput gfoldprint iop(6/7=3) scrf(pcm,sol
 vent=toluene) pop=full pop=nbo6 pop=allorbitals symmetry=loose
 ----------------------------------------------------------------------

 ------------------
 Water MP5/def2-SVP
 ------------------
 Symbolic Z-matrix:
 Charge =  0 Multiplicity = 1

 SCF Done:  E(UHF) =  -75.8780485193     A.U. after   10 cycles
 E2 =    -0.2180043357D+00 EUMP2 =    -0.76096052854972D+02
 SCF Done:  E(UHF) =  -75.8778529692     A.U. after    8 cycles
 E2 =    -0.2180345704D+00 EUMP2 =    -0.76095887539638D+02
 SCF Done:  E(UHF) =  -75.8782439917     A.U. after    8 cycles
 E2 =    -0.2179741107D+00 EUMP2 =    -0.76096218102410D+02
 SCF Done:  E(UHF) =  -75.8780292088     A.U. after    7 cycles
 E2 =    -0.2179988422D+00 EUMP2 =    -0.76096028050996D+02
 SCF Done:  E(UHF) =  -75.8780677590     A.U. after    7 cycles
 E2 =    -0.2180098337D+00 EUMP2 =    -0.76096077592782D+02
 SCF Done:  E(UHF) =  -75.9475228457     A.U. after   10 cycles
 E2 =    -0.2065473963D+00 EUMP2 =    -0.76154070241941D+02
 SCF Done:  E(UHF) =  -75.9474130534     A.U. after    7 cycles
 E2 =    -0.2065719441D+00 EUMP2 =    -0.76153984997462D+02
 SCF Done:  E(UHF) =  -75.9475133309     A.U. after    7 cycles
 E2 =    -0.2065430487D+00 EUMP2 =    -0.76154056379594D+02
 SCF Done:  E(UHF) =  -75.9554731186     A.U. after   10 cycles
 E2 =    -0.1961649630D+00 EUMP2 =    -0.76151638081611D+02
 SCF Done:  E(UHF) =  -75.9555765402     A.U. after    7 cycles
 E2 =    -0.1961852285D+00 EUMP2 =    -0.76151761768679D+02
 E2 =    -0.1961615798D+00 EUMP2 =    -0.76151641340769D+02
 E2 =    -0.2028642476D+00 EUMP2 =    -0.76164884218091D+02
 E2 =    -0.2028872989D+00 EUMP2 =    -0.76164860498457D+02
 E2 =    -0.2028596425D+00 EUMP2 =    -0.76164883488651D+02
 E2 =    -0.2018741509D+00 EUMP2 =    -0.76165520051810D+02
 E2 =    -0.2018967666D+00 EUMP2 =    -0.76165512682122D+02
 SCF Done:  E(UHF) =  -75.9636499569     A.U. after    7 cycles
 E2 =    -0.2018697326D+00 EUMP2 =    -0.76165519689441D+02
 SCF Done:  E(UHF) =  -75.9640580890     A.U. after    8 cycles
 E2 =    -0.2015221756D+00 EUMP2 =    -0.76165580264591D+02
 SCF Done:  E(UHF) =  -75.9640344344     A.U. after    7 cycles
 E2 =    -0.2015446373D+00 EUMP2 =    -0.76165579071720D+02
 SCF Done:  E(UHF) =  -75.9640622151     A.U. after    7 cycles
 E2 =    -0.2015178240D+00 EUMP2 =    -0.76165580039110D+02
 SCF Done:  E(UHF) =  -75.9640538768     A.U. after    7 cycles
 E2 =    -0.2015265345D+00 EUMP2 =    -0.76165580411323D+02
 SCF Done:  E(UHF) =  -75.9640403559     A.U. after    7 cycles
 E2 =    -0.2015390491D+00 EUMP2 =    -0.76165579405009D+02
 SCF Done:  E(UHF) =  -75.9640163748     A.U. after    7 cycles
 E2 =    -0.2015615184D+00 EUMP2 =    -0.76165577893193D+02
 SCF Done:  E(UHF) =  -75.9640639085     A.U. after    7 cycles
 E2 =    -0.2015165846D+00 EUMP2 =    -0.76165580493129D+02
 SCF Done:  E(UHF) =  -75.9640444633     A.U. after    7 cycles
 E2 =    -0.2015346954D+00 EUMP2 =    -0.76165579158696D+02
 SCF Done:  E(UHF) =  -75.9640361625     A.U. after    7 cycles
 E2 =    -0.2015434105D+00 EUMP2 =    -0.76165579573011D+02

                         Standard orientation:
 ---------------------------------------------------------------------
 Center     Atomic      Atomic             Coordinates (Angstroms)
 Number     Number       Type             X           Y           Z
 ---------------------------------------------------------------------
      1          8           0        0.000000    0.000000    0.121015
      2          1           0        0.000000    0.750649   -0.484060
      3          1           0       -0.000000   -0.750649   -0.484060
 ---------------------------------------------------------------------

 The electronic state is 1-A1.
 Alpha  occ. eigenvalues --  -20.54830  -1.31748  -0.69554  -0.57425  -0.50001
 Alpha virt. eigenvalues --    0.18103   0.26161   0.78312   0.87553   1.18015
 Alpha virt. eigenvalues --    1.19860   1.27000   1.34635   1.60637   1.63467
 Alpha virt. eigenvalues --    1.79562   2.07081   2.54380   2.59332   3.33197

  Beta  occ. eigenvalues --  -20.54830  -1.31748  -0.69554  -0.57425  -0.50001
  Beta virt. eigenvalues --    0.18103   0.26161   0.78312   0.87553   1.18015
  Beta virt. eigenvalues --    1.19860   1.27000   1.34635   1.60637   1.63467
  Beta virt. eigenvalues --    1.79562   2.07081   2.54380   2.59332   3.33197

 Mulliken charges and spin densities:
               1          2
     1  O   -0.371818   0.000000
     2  H    0.185909   0.000000
     3  H    0.185909   0.000000
 Sum of Mulliken charges =  -0.00000   0.00000

 Dipole moment (field-independent basis, Debye):
    X=             -0.0000    Y=             -0.0000    Z=             -2.2697  Tot=              2.2697
 Quadrupole moment (field-independent basis, Debye-Ang):
   XX=             -7.0613   YY=             -4.1781   ZZ=             -5.8576
   XY=              0.0000   XZ=              0.0000   YZ=             -0.0000

 Summary of Natural Population Analysis:

                                     Natural Population
             Natural    ---------------------------------------------
  Atom No    Charge        Core      Valence    Rydberg      Total
 --------------------------------------------------------------------
    O  1   -0.46503      0.99999     3.45851    0.00652     4.46503
    H  2    0.23251      0.00000     0.26455    0.00294     0.26749
    H  3    0.23251      0.00000     0.26455    0.00294     0.26749
 ====================================================================
 * Total *  0.00000      0.99999     3.98761    0.01240     5.00000

 Normal termination of Gaussian 09 at Tue Jan  9 19:01:10 2018.
