 Gaussian 09, Revision E.01,
 Gaussian 09:  ES64L-G09RevE.01 30-Nov-2015

 ----------------------------------------------------------------------
 #p b2plyp/def2SVP freq geom=check guess=read gfinput gfoldprint iop(6/
 7=3) scrf(pcm,solvent=toluene) pop=full pop=nbo6 pop=allorbitals symme
 try=loose
 ----------------------------------------------------------------------

 ---------------------
 Water B2PLYP/def2-SVP
 ---------------------
 Structure from the checkpoint file:  "h2o.b2plyp.def2svp.nbo6.freq.chk"
 Charge =  0 Multiplicity = 1

                         Standard orientation:
 ---------------------------------------------------------------------
 Center     Atomic      Atomic             Coordinates (Angstroms)
 Number     Number       Type             X           Y           Z
 ---------------------------------------------------------------------
      1          8           0       -0.000000    0.000000    0.120466
      2          1           0        0.000000    0.753302   -0.481863
      3          1           0       -0.000000   -0.753302   -0.481863
 ---------------------------------------------------------------------

 SCF Done:  E(RB2PLYP) =  -76.2278509311     A.U. after    1 cycles
 E2(B2PLYP) =    -0.6466975923D-01 E(B2PLYP) =    -0.76292520690287D+02
 E2(B2PLYP) =    -0.6466975923D-01 E(B2PLYP) =    -0.76292520690287D+02

 The electronic state is 1-A1.
 Alpha  occ. eigenvalues --  -19.71682  -1.11995  -0.58784  -0.45528  -0.37962
 Alpha virt. eigenvalues --    0.10383   0.18490   0.64948   0.72770   1.02188
 Alpha virt. eigenvalues --    1.03231   1.11308   1.19851   1.45643   1.49361
 Alpha virt. eigenvalues --    1.64754   1.90693   2.34482   2.39243   3.11400

 Mulliken charges:
               1
     1  O   -0.339074
     2  H    0.169537
     3  H    0.169537
 Sum of Mulliken charges =   0.00000

 Dipole moment (field-independent basis, Debye):
    X=             -0.0000    Y=              0.0000    Z=             -2.1739  Tot=              2.1739
 Quadrupole moment (field-independent basis, Debye-Ang):
   XX=             -7.0239   YY=             -4.2419   ZZ=             -5.8837
   XY=              0.0000   XZ=              0.0000   YZ=             -0.0000

  Exact polarizability:   3.171   0.000   7.373  -0.000   0.000   5.546
 Approx polarizability:   2.877   0.000   6.947   0.000  -0.000   5.389

 Summary of Natural Population Analysis:

                                     Natural Population
             Natural    ---------------------------------------------
  Atom No    Charge        Core      Valence    Rydberg      Total
 --------------------------------------------------------------------
    O  1   -0.91688      1.99998     6.90282    0.01408     8.91688
    H  2    0.45844      0.00000     0.53572    0.00583     0.54156
    H  3    0.45844      0.00000     0.53572    0.00583     0.54156
 ====================================================================
 * Total *  0.00000      1.99998     7.97427    0.02575    10.00000

                      1                      2                      3
                     A1                     A1                     B2
 Frequencies --   1651.2039              3837.9760              3934.4203
 Red. masses --      1.0810                 1.0467                 1.0801
 Frc consts  --      1.7365                 9.0843                 9.8506
 IR Inten    --     68.2289                12.1357                47.6171

 - Thermochemistry -
 -------------------
 Temperature   298.150 Kelvin.  Pressure   1.00000 Atm.
 Atom     1 has atomic number  8 and mass  15.99491

 Molecular mass:    18.01056 amu.
 Principal axes and moments of inertia in atomic units:
                           1         2         3
     Eigenvalues --     2.31918   4.08461   6.40379
           X            0.00000   0.00000   1.00000
           Y            1.00000   0.00000  -0.00000
           Z           -0.00000   1.00000  -0.00000
 This molecule is an asymmetric top.
 Rotational symmetry number  2.
 Rotational temperatures (Kelvin)     37.34673    21.20491    13.52539
 Rotational constants (GHZ):         778.18057   441.83913   281.82383
 Zero-point vibrational energy      56365.6 (Joules/Mol)
                                   13.47171 (Kcal/Mol)
 Vibrational temperatures:   2375.71  5521.98  5660.75
          (Kelvin)

 Zero-point correction=                           0.021469 (Hartree/Particle)
 Thermal correction to Energy=                    0.024304
 Thermal correction to Enthalpy=                  0.025248
 Thermal correction to Gibbs Free Energy=         0.003810
 Sum of electronic and zero-point Energies=            -76.271052
 Sum of electronic and thermal Energies=               -76.268217
 Sum of electronic and thermal Enthalpies=             -76.267273
 Sum of electronic and thermal Free Energies=          -76.288710

                     E (Thermal)             CV                S
                      KCal/Mol        Cal/Mol-Kelvin    Cal/Mol-Kelvin
 Total                   15.251              6.005             45.119
 Electronic               0.000              0.000              0.000
 Translational            0.889              2.981             34.608
 Rotational               0.889              2.981             10.505
 Vibrational             13.473              0.044              0.006

 Optimization completed.
    -- Stationary point found.
 Normal termination of Gaussian 09 at Tue Jan  9 19:09:23 2018.
