 Gaussian 09, Revision E.01,
 Gaussian 09:  ES64L-G09RevE.01 30-Nov-2015

 ----------------------------------------------------------------------
 #P BP86/def2SVP/W06 DenFit opt(MaxCycle=100) scf(xqc,MaxConventionalCy
 cle=500) int(ultrafinegrid) gfinput gfoldprint iop(6/7=3) symmetry(loo
 se)
 ----------------------------------------------------------------------

 ------------------------
 Ammonia DF-BP86/def2-SVP
 ------------------------
 Symbolic Z-matrix:
 Charge =  0 Multiplicity = 1

 SCF Done:  E(RB-P86) =  -56.5086320095     A.U. after    9 cycles
 SCF Done:  E(RB-P86) =  -56.5090134760     A.U. after    7 cycles
 SCF Done:  E(RB-P86) =  -56.5090680348     A.U. after    7 cycles
 SCF Done:  E(RB-P86) =  -56.5090729265     A.U. after    6 cycles
 Optimization completed.
    -- Stationary point found.

                         Standard orientation:
 ---------------------------------------------------------------------
 Center     Atomic      Atomic             Coordinates (Angstroms)
 Number     Number       Type             X           Y           Z
 ---------------------------------------------------------------------
      1          7           0        0.000000    0.000000    0.127909
      2          1           0        0.000000    0.939821   -0.298455
      3          1           0       -0.813909   -0.469910   -0.298455
      4          1           0        0.813909   -0.469910   -0.298455
 ---------------------------------------------------------------------

 The electronic state is 1-A1.
 Alpha  occ. eigenvalues --  -13.98933  -0.75778  -0.39843  -0.39843  -0.20952
 Alpha virt. eigenvalues --    0.03502   0.11607   0.11607   0.47154   0.47154
 Alpha virt. eigenvalues --    0.59609   0.69080   0.78684   0.78684   0.88678
 Alpha virt. eigenvalues --    1.13230   1.13230   1.54064   1.58919   1.73216

 Mulliken charges:
               1
     1  N   -0.261187
     2  H    0.087062
     3  H    0.087062
     4  H    0.087062
 Sum of Mulliken charges =  -0.00000

 Dipole moment (field-independent basis, Debye):
    X=             -0.0000    Y=             -0.0000    Z=             -1.7828  Tot=              1.7828
 Quadrupole moment (field-independent basis, Debye-Ang):
   XX=             -6.2915   YY=             -6.2915   ZZ=             -8.5759
   XY=             -0.0000   XZ=              0.0000   YZ=              0.0000

 Normal termination of Gaussian 09 at Thu Jan 11 20:26:42 2018.
