 Gaussian 09, Revision E.01,
 Gaussian 09:  ES64L-G09RevE.01 30-Nov-2015

 ----------------------------------------------------------------------
 #P PBEPBE/def2SVP/W06 DenFit scf(xqc,MaxConventionalCycle=500) int(ult
 rafinegrid) gfinput gfoldprint iop(6/7=3) symmetry(loose) geom(check)
 guess(read) freq(noraman temp=100 pre=5)
 ----------------------------------------------------------------------

 -----------------------
 Ammonia DF-PBE/def2-SVP
 -----------------------
 Structure from the checkpoint file:  "ammonia.pbesvp.freq.chk"
 Charge =  0 Multiplicity = 1

                         Standard orientation:
 ---------------------------------------------------------------------
 Center     Atomic      Atomic             Coordinates (Angstroms)
 Number     Number       Type             X           Y           Z
 ---------------------------------------------------------------------
      1          7           0        0.000000    0.000000    0.128140
      2          1           0        0.000000    0.938309   -0.298992
      3          1           0       -0.812600   -0.469155   -0.298992
      4          1           0        0.812600   -0.469155   -0.298992
 ---------------------------------------------------------------------

 SCF Done:  E(RPBE-PBE) =  -56.4332733312     A.U. after    1 cycles

 The electronic state is 1-A1.
 Alpha  occ. eigenvalues --  -13.96883  -0.75460  -0.39482  -0.39482  -0.20552
 Alpha virt. eigenvalues --    0.03108   0.11326   0.11326   0.47180   0.47180
 Alpha virt. eigenvalues --    0.59637   0.69839   0.79093   0.79093   0.89348
 Alpha virt. eigenvalues --    1.13490   1.13490   1.54707   1.59271   1.73736

 Mulliken charges:
               1
     1  N   -0.243520
     2  H    0.081173
     3  H    0.081173
     4  H    0.081173
 Sum of Mulliken charges =  -0.00000

 Dipole moment (field-independent basis, Debye):
    X=             -0.0000    Y=              0.0000    Z=             -1.7747  Tot=              1.7747
 Quadrupole moment (field-independent basis, Debye-Ang):
   XX=             -6.3070   YY=             -6.3070   ZZ=             -8.5753
   XY=             -0.0000   XZ=              0.0000   YZ=             -0.0000

  Exact polarizability:  10.002   0.000  10.002  -0.000  -0.000   7.083
 Approx polarizability:  14.077  -0.000  14.077   0.000   0.000   9.603

                      1                      2                      3
                     A1                      E                      E
 Frequencies --   1054.2052              1614.2518              1614.2520
 Red. masses --      1.1757                 1.0613                 1.0613
 Frc consts  --      0.7698                 1.6295                 1.6295
 IR Inten    --     96.0288                 7.5048                 7.5050

                      4                      5                      6
                     A1                      E                      E
 Frequencies --   3356.7142              3480.1868              3480.1870
 Red. masses --      1.0305                 1.0866                 1.0866
 Frc consts  --      6.8410                 7.7538                 7.7538
 IR Inten    --      1.2278                 0.1545                 0.1544

 - Thermochemistry -
 -------------------
 Temperature   100.000 Kelvin.  Pressure   5.00000 Atm.
 Atom     1 has atomic number  7 and mass  14.00307

 Molecular mass:    17.02655 amu.
 Principal axes and moments of inertia in atomic units:
                           1         2         3
     Eigenvalues --     6.37302   6.37302   9.50596
           X           -0.44721   0.89443   0.00000
           Y            0.89443   0.44721   0.00000
           Z           -0.00000  -0.00000   1.00000
 This molecule is an oblate symmetric top.
 Rotational symmetry number  3.
 Rotational temperatures (Kelvin)     13.59071    13.59071     9.11152
 Rotational constants (GHZ):         283.18469   283.18469   189.85357
 Zero-point vibrational energy      87326.2 (Joules/Mol)
                                   20.87146 (Kcal/Mol)
 Vibrational temperatures:   1516.76  2322.55  2322.55  4829.56  5007.21
          (Kelvin)           5007.21

 Zero-point correction=                           0.033261 (Hartree/Particle)
 Thermal correction to Energy=                    0.034211
 Thermal correction to Enthalpy=                  0.034528
 Thermal correction to Gibbs Free Energy=         0.029094
 Sum of electronic and zero-point Energies=            -56.400013
 Sum of electronic and thermal Energies=               -56.399063
 Sum of electronic and thermal Enthalpies=             -56.398746
 Sum of electronic and thermal Free Energies=          -56.404179

                     E (Thermal)             CV                S
                      KCal/Mol        Cal/Mol-Kelvin    Cal/Mol-Kelvin
 Total                   21.468              5.962             34.097
 Electronic               0.000              0.000              0.000
 Translational            0.298              2.981             25.815
 Rotational               0.298              2.981              8.281
 Vibrational             20.871              0.000              0.000

 Optimization completed.
    -- Stationary point found.
 Normal termination of Gaussian 09 at Mon Jan 22 20:42:11 2018.
