 Gaussian 09, Revision E.01,
 Gaussian 09:  ES64L-G09RevE.01 30-Nov-2015

 ----------------------------------------------------------------------
 #P B97D3/def2SVP/W06 DenFit opt(MaxCycle=100) scf(xqc,MaxConventionalC
 ycle=500) int(ultrafinegrid) gfinput gfoldprint iop(6/7=3) symmetry(lo
 ose)
 ----------------------------------------------------------------------

 -------------------------
 Ammonia DF-B97D3/def2-SVP
 -------------------------
 Symbolic Z-matrix:
 Charge =  0 Multiplicity = 1

 SCF Done:  E(RB97D3) =  -56.4778331777     A.U. after   10 cycles
 SCF Done:  E(RB97D3) =  -56.4780126251     A.U. after    7 cycles
 SCF Done:  E(RB97D3) =  -56.4780509888     A.U. after    7 cycles
 Optimization completed.
    -- Stationary point found.

                         Standard orientation:
 ---------------------------------------------------------------------
 Center     Atomic      Atomic             Coordinates (Angstroms)
 Number     Number       Type             X           Y           Z
 ---------------------------------------------------------------------
      1          7           0        0.000000    0.000000    0.126824
      2          1           0        0.000000    0.935802   -0.295923
      3          1           0       -0.810428   -0.467901   -0.295923
      4          1           0        0.810428   -0.467901   -0.295923
 ---------------------------------------------------------------------

 The electronic state is 1-A1.
 Alpha  occ. eigenvalues --  -13.98093  -0.75912  -0.39809  -0.39809  -0.20752
 Alpha virt. eigenvalues --    0.03572   0.11662   0.11662   0.47296   0.47296
 Alpha virt. eigenvalues --    0.59616   0.69897   0.79443   0.79443   0.89261
 Alpha virt. eigenvalues --    1.13364   1.13364   1.54631   1.59530   1.73858

 Mulliken charges:
               1
     1  N   -0.225597
     2  H    0.075199
     3  H    0.075199
     4  H    0.075199
 Sum of Mulliken charges =  -0.00000

 Dipole moment (field-independent basis, Debye):
    X=             -0.0000    Y=             -0.0000    Z=             -1.7527  Tot=              1.7527
 Quadrupole moment (field-independent basis, Debye-Ang):
   XX=             -6.2540   YY=             -6.2540   ZZ=             -8.5126
   XY=              0.0000   XZ=              0.0000   YZ=              0.0000

 Normal termination of Gaussian 09 at Thu Feb 15 13:07:12 2018.
