 Gaussian 09, Revision E.01,
 Gaussian 09:  ES64L-G09RevE.01 30-Nov-2015

 ----------------------------------------------------------------------
 #P PBEPBE/def2SVP/W06 DenFit opt(MaxCycle=100) scf(xqc,MaxConventional
 Cycle=500) int(ultrafinegrid) gfinput gfoldprint iop(6/7=3) symmetry(l
 oose)
 ----------------------------------------------------------------------

 -----------------------
 Ammonia DF-PBE/def2-SVP
 -----------------------
 Symbolic Z-matrix:
 Charge =  0 Multiplicity = 1

 SCF Done:  E(RPBE-PBE) =  -56.4328776014     A.U. after   10 cycles
 SCF Done:  E(RPBE-PBE) =  -56.4332137882     A.U. after    7 cycles
 SCF Done:  E(RPBE-PBE) =  -56.4332698967     A.U. after    7 cycles
 SCF Done:  E(RPBE-PBE) =  -56.4332733313     A.U. after    6 cycles
 Optimization completed.
    -- Stationary point found.

                         Standard orientation:
 ---------------------------------------------------------------------
 Center     Atomic      Atomic             Coordinates (Angstroms)
 Number     Number       Type             X           Y           Z
 ---------------------------------------------------------------------
      1          7           0        0.000000    0.000000    0.128140
      2          1           0        0.000000    0.938309   -0.298992
      3          1           0       -0.812600   -0.469155   -0.298992
      4          1           0        0.812600   -0.469155   -0.298992
 ---------------------------------------------------------------------

 The electronic state is 1-A1.
 Alpha  occ. eigenvalues --  -13.96883  -0.75460  -0.39482  -0.39482  -0.20552
 Alpha virt. eigenvalues --    0.03108   0.11326   0.11326   0.47180   0.47180
 Alpha virt. eigenvalues --    0.59637   0.69839   0.79093   0.79093   0.89348
 Alpha virt. eigenvalues --    1.13490   1.13490   1.54707   1.59271   1.73736

 Mulliken charges:
               1
     1  N   -0.243520
     2  H    0.081173
     3  H    0.081173
     4  H    0.081173
 Sum of Mulliken charges =  -0.00000

 Dipole moment (field-independent basis, Debye):
    X=             -0.0000    Y=              0.0000    Z=             -1.7747  Tot=              1.7747
 Quadrupole moment (field-independent basis, Debye-Ang):
   XX=             -6.3070   YY=             -6.3070   ZZ=             -8.5753
   XY=             -0.0000   XZ=              0.0000   YZ=              0.0000

 Normal termination of Gaussian 09 at Mon Jan 22 15:05:18 2018.
